                         Program Version 6.0.0  -   RELEASE  -
|  1> ! B3LYP D4 def2-TZVP VeryTightSCF
|  2>
|  3> %pal
|  4>    nprocs 8
|  5> end
|  6>
|  7> %maxcore 9000
|  8>
|  9> %geom
| 10>    MaxIter 600
| 11> end
| 12>
| 13> * xyz 0 1
| 14> O       -3.590911000      3.401148000      0.030431000
| 15> H       -3.400145000      2.457871000     -0.097306000
| 16> H       -4.003159000      3.691935000     -0.788505000
| 17> O       -2.924553035   0.581993463   -0.124925876
| 18> H       -1.979581035   0.486090463   0.038280124
| 19> H       -3.362724035   0.126096463   0.602458124
| 20> *
| 21>
| 22>                          ****END OF INPUT****

CARTESIAN COORDINATES (ANGSTROEM)
---------------------------------
  O     -3.590911    3.401148    0.030431
  H     -3.400145    2.457871   -0.097306
  H     -4.003159    3.691935   -0.788505
  O     -2.924553    0.581993   -0.124926
  H     -1.979581    0.486090    0.038280
  H     -3.362724    0.126096    0.602458

 Total Charge           Charge          ....    0
 Multiplicity           Mult            ....    1
 Number of Electrons    NEL             ....   20
 Basis Dimension        Dim             ....   86

ORBITAL ENERGIES
----------------

  NO   OCC          E(Eh)            E(eV)
   0   2.0000     -19.154687      -521.2255
   1   2.0000     -19.090814      -519.4875
   2   2.0000      -1.040349       -28.3093
   3   2.0000      -0.977602       -26.6019
   4   2.0000      -0.560436       -15.2502
   5   2.0000      -0.504629       -13.7316
   6   2.0000      -0.420586       -11.4447
   7   2.0000      -0.360857        -9.8194
   8   2.0000      -0.338317        -9.2061
   9   2.0000      -0.284328        -7.7369
  10   0.0000      -0.001176        -0.0320
  11   0.0000       0.060570         1.6482
  12   0.0000       0.077778         2.1165
  13   0.0000       0.187473         5.1014
  14   0.0000       0.322872         8.7858

MULLIKEN ATOMIC CHARGES
-----------------------
   0 O :   -0.667141
   1 H :    0.332879
   2 H :    0.306193
   3 O :   -0.641832
   4 H :    0.334975
   5 H :    0.334926
Sum of atomic charges:   -0.0000000

LOEWDIN ATOMIC CHARGES
----------------------
   0 O :   -0.335135
   1 H :    0.137263
   2 H :    0.148390
   3 O :   -0.278047
   4 H :    0.163756
   5 H :    0.163772

  Mayer bond orders larger than 0.100000
B(  0-O ,  1-H ) :   0.8704 B(  0-O ,  2-H ) :   0.9159 B(  3-O ,  4-H ) :   0.8949
B(  3-O ,  5-H ) :   0.8949

Dispersion correction           -0.001552334
FINAL SINGLE POINT ENERGY      -152.862480249909

DIPOLE MOMENT
-------------

Method             : SCF
Type of density    : Electron Density
Multiplicity       :   1
Irrep              :   0
Energy             :  -152.8609279155725744 Eh
Relativity type    :
Basis              : AO
                                X                 Y                 Z
Electronic contribution:      0.024081088      -0.060405134       0.019075564
Nuclear contribution   :      0.237488305      -1.002403591      -0.046681282
                        -----------------------------------------
Total Dipole Moment    :      0.261569392      -1.062808725      -0.027605717
                        -----------------------------------------
Magnitude (a.u.)       :      1.094871230
Magnitude (Debye)      :      2.782941502

Rotational constants in cm-1:             7.139600             0.215455             0.215401
Rotational constants in MHz :        214039.816786          6459.163800          6457.557515

                             ****ORCA TERMINATED NORMALLY****
TOTAL RUN TIME: 0 days 0 hours 0 minutes 3 seconds 512 msec
