                         Program Version 6.0.0  -   RELEASE  -
|  1> ! B3LYP D4 def2-TZVP VeryTightSCF Freq
|  2>
|  3>
|  4> %pal
|  5>    nprocs 8
|  6> end
|  7>
|  8> %freq
|  9>    Temp 400.0
| 10> end
| 11>
| 12> %maxcore 9000
| 13>
| 14> %geom
| 15>    MaxIter 600
| 16> end
| 17>
| 18> * xyz 0 1
| 19> O       -3.311088000      5.913209000     -0.307027000
| 20> H       -3.289426000      5.045206000     -0.759691000
| 21> H       -4.007511000      5.808474000      0.364194000
| 22> O       -5.710068000      2.269588000      1.253059000
| 23> H       -4.784719000      2.073208000      1.456822000
| 24> H       -5.969597000      1.637674000      0.555301000
| 25> O       -2.717454000      3.313655000     -0.976146000
| 26> H       -1.794758000      3.392081000     -1.280684000
| 27> H       -3.106340000      2.509293000     -1.417799000
| 28> O       -0.709287000      6.006511000      0.240315000
| 29> H       -0.386488000      6.912881000      0.226048000
| 30> H       -1.701092000      6.052406000      0.121012000
| 31> O        0.565925000      1.875248000      0.548543000
| 32> H        0.556786000      2.538130000      1.274441000
| 33> H        0.434335000      2.428942000     -0.241355000
| 34> O       -3.681344000      1.071316000     -1.999342000
| 35> H       -3.148664000      0.371291000     -1.568054000
| 36> H       -4.599727000      0.885773000     -1.737008000
| 37> O       -5.168148000      4.881504000      1.628707000
| 38> H       -5.581595000      4.019437000      1.381633000
| 39> H       -5.736350000      5.281889000      2.293723000
| 40> O       -2.897237000      3.160601000      1.731636000
| 41> H       -2.811469000      3.214604000      0.745874000
| 42> H       -3.528778000      3.858659000      1.976366000
| 43> O       -0.020535000      3.915485000     -1.374772000
| 44> H        0.388774000      4.128705000     -2.218818000
| 45> H       -0.124318000      4.756365000     -0.871587000
| 46> O        0.487298000     -0.712482000     -0.603847000
| 47> H        0.669930000      0.118990000     -0.126694000
| 48> H        1.117012000     -1.355958000     -0.265141000
| 49> O       -2.325357000     -0.809772000     -0.417077000
| 50> H       -1.405132000     -1.021569000     -0.665860000
| 51> H       -2.211660000     -0.314062000      0.434344000
| 52> O       -6.111478000      0.285885000     -0.709993000
| 53> H       -5.709474000     -0.579543000     -0.436384000
| 54> H       -6.930755000      0.078384000     -1.170226000
| 55> O       -4.756341000     -1.952083000     -0.126833000
| 56> H       -3.809826000     -1.705030000     -0.257334000
| 57> H       -4.803856000     -2.406913000      0.719562000
| 58> O       -1.713169000      0.625986000      1.764532000
| 59> H       -0.907483000      1.013203000      1.371415000
| 60> H       -2.249730000      1.398096000      2.008291000
| 61> O       -0.167499000      3.938180000      2.247245000
| 62> H       -0.190640000      4.751199000      1.716604000
| 63> H       -1.103195000      3.668584000      2.286362000
| 64> *
| 65>
| 66>                          ****END OF INPUT****

CARTESIAN COORDINATES (ANGSTROEM)
---------------------------------
  O     -3.311088    5.913209   -0.307027
  H     -3.289426    5.045206   -0.759691
  H     -4.007511    5.808474    0.364194
  O     -5.710068    2.269588    1.253059
  H     -4.784719    2.073208    1.456822
  H     -5.969597    1.637674    0.555301
  O     -2.717454    3.313655   -0.976146
  H     -1.794758    3.392081   -1.280684
  H     -3.106340    2.509293   -1.417799
  O     -0.709287    6.006511    0.240315
  H     -0.386488    6.912881    0.226048
  H     -1.701092    6.052406    0.121012
  O      0.565925    1.875248    0.548543
  H      0.556786    2.538130    1.274441
  H      0.434335    2.428942   -0.241355
  O     -3.681344    1.071316   -1.999342
  H     -3.148664    0.371291   -1.568054
  H     -4.599727    0.885773   -1.737008
  O     -5.168148    4.881504    1.628707
  H     -5.581595    4.019437    1.381633
  H     -5.736350    5.281889    2.293723
  O     -2.897237    3.160601    1.731636
  H     -2.811469    3.214604    0.745874
  H     -3.528778    3.858659    1.976366
  O     -0.020535    3.915485   -1.374772
  H      0.388774    4.128705   -2.218818
  H     -0.124318    4.756365   -0.871587
  O      0.487298   -0.712482   -0.603847
  H      0.669930    0.118990   -0.126694
  H      1.117012   -1.355958   -0.265141
  O     -2.325357   -0.809772   -0.417077
  H     -1.405132   -1.021569   -0.665860
  H     -2.211660   -0.314062    0.434344
  O     -6.111478    0.285885   -0.709993
  H     -5.709474   -0.579543   -0.436384
  H     -6.930755    0.078384   -1.170226
  O     -4.756341   -1.952083   -0.126833
  H     -3.809826   -1.705030   -0.257334
  H     -4.803856   -2.406913    0.719562
  O     -1.713169    0.625986    1.764532
  H     -0.907483    1.013203    1.371415
  H     -2.249730    1.398096    2.008291
  O     -0.167499    3.938180    2.247245
  H     -0.190640    4.751199    1.716604
  H     -1.103195    3.668584    2.286362

 Total Charge           Charge          ....    0
 Multiplicity           Mult            ....    1
 Number of Electrons    NEL             ....  150
 Basis Dimension        Dim             ....  645

ORBITAL ENERGIES
----------------

  NO   OCC          E(Eh)            E(eV)
   0   2.0000     -19.149878      -521.0947
   1   2.0000     -19.144266      -520.9420
   2   2.0000     -19.140412      -520.8371
   3   2.0000     -19.139214      -520.8045
   4   2.0000     -19.129661      -520.5445
   5   2.0000     -19.127397      -520.4829
   6   2.0000     -19.122242      -520.3427
   7   2.0000     -19.120244      -520.2883
   8   2.0000     -19.117478      -520.2130
   9   2.0000     -19.116968      -520.1991
  10   2.0000     -19.116294      -520.1808
  11   2.0000     -19.115601      -520.1620
  12   2.0000     -19.110025      -520.0102
  13   2.0000     -19.107230      -519.9342
  14   2.0000     -19.105781      -519.8947
  15   2.0000      -1.039553       -28.2877
  16   2.0000      -1.030473       -28.0406
  17   2.0000      -1.027626       -27.9631
  18   2.0000      -1.024588       -27.8805
  19   2.0000      -1.017090       -27.6764
  20   2.0000      -1.013576       -27.5808
  21   2.0000      -1.010471       -27.4963
  22   2.0000      -1.006229       -27.3809
  23   2.0000      -1.002482       -27.2789
  24   2.0000      -1.001322       -27.2474
  25   2.0000      -0.999487       -27.1974
  26   2.0000      -0.996512       -27.1165
  27   2.0000      -0.989718       -26.9316
  28   2.0000      -0.984862       -26.7994
  29   2.0000      -0.981546       -26.7092
  30   2.0000      -0.567200       -15.4343
  31   2.0000      -0.557602       -15.1731
  32   2.0000      -0.552177       -15.0255
  33   2.0000      -0.550598       -14.9825
  34   2.0000      -0.540791       -14.7157
  35   2.0000      -0.537673       -14.6308
  36   2.0000      -0.536068       -14.5871
  37   2.0000      -0.531856       -14.4725
  38   2.0000      -0.527001       -14.3404
  39   2.0000      -0.525000       -14.2860
  40   2.0000      -0.518892       -14.1198
  41   2.0000      -0.517299       -14.0764
  42   2.0000      -0.514626       -14.0037
  43   2.0000      -0.512228       -13.9384
  44   2.0000      -0.505131       -13.7453
  45   2.0000      -0.450714       -12.2645
  46   2.0000      -0.440934       -11.9984
  47   2.0000      -0.439659       -11.9637
  48   2.0000      -0.424952       -11.5635
  49   2.0000      -0.419659       -11.4195
  50   2.0000      -0.417899       -11.3716
  51   2.0000      -0.403503       -10.9799
  52   2.0000      -0.398696       -10.8491
  53   2.0000      -0.393607       -10.7106
  54   2.0000      -0.387402       -10.5418
  55   2.0000      -0.379869       -10.3368
  56   2.0000      -0.378498       -10.2994
  57   2.0000      -0.372583       -10.1385
  58   2.0000      -0.370567       -10.0836
  59   2.0000      -0.353421        -9.6171
  60   2.0000      -0.343543        -9.3483
  61   2.0000      -0.336843        -9.1660
  62   2.0000      -0.334693        -9.1075
  63   2.0000      -0.331229        -9.0132
  64   2.0000      -0.326613        -8.8876
  65   2.0000      -0.324672        -8.8348
  66   2.0000      -0.319823        -8.7028
  67   2.0000      -0.317430        -8.6377
  68   2.0000      -0.315696        -8.5905
  69   2.0000      -0.314510        -8.5582
  70   2.0000      -0.312277        -8.4975
  71   2.0000      -0.311259        -8.4698
  72   2.0000      -0.303058        -8.2466
  73   2.0000      -0.299732        -8.1561
  74   2.0000      -0.298218        -8.1149
  75   0.0000      -0.006193        -0.1685
  76   0.0000       0.009490         0.2582
  77   0.0000       0.021377         0.5817
  78   0.0000       0.031010         0.8438
  79   0.0000       0.039326         1.0701

MULLIKEN ATOMIC CHARGES
-----------------------
   0 O :   -0.691433
   1 H :    0.358671
   2 H :    0.358989
   3 O :   -0.691866
   4 H :    0.324567
   5 H :    0.366499
   6 O :   -0.755394
   7 H :    0.353584
   8 H :    0.391550
   9 O :   -0.715587
  10 H :    0.331974
  11 H :    0.378249
  12 O :   -0.728819
  13 H :    0.371116
  14 H :    0.362325
  15 O :   -0.698437
  16 H :    0.354167
  17 H :    0.345792
  18 O :   -0.711622
  19 H :    0.382036
  20 H :    0.330419
  21 O :   -0.763120
  22 H :    0.374255
  23 H :    0.348579
  24 O :   -0.697084
  25 H :    0.335399
  26 H :    0.364735
  27 O :   -0.677992
  28 H :    0.360525
  29 H :    0.321126
  30 O :   -0.747206
  31 H :    0.369646
  32 H :    0.372444
  33 O :   -0.712685
  34 H :    0.373336
  35 H :    0.332839
  36 O :   -0.684709
  37 H :    0.377816
  38 H :    0.325997
  39 O :   -0.686915
  40 H :    0.338554
  41 H :    0.359635
  42 O :   -0.689852
  43 H :    0.338919
  44 H :    0.348978
Sum of atomic charges:   -0.0000000

LOEWDIN ATOMIC CHARGES
----------------------
   0 O :   -0.284604
   1 H :    0.143063
   2 H :    0.146567
   3 O :   -0.297445
   4 H :    0.143104
   5 H :    0.146340
   6 O :   -0.291756
   7 H :    0.136567
   8 H :    0.140171
   9 O :   -0.292040
  10 H :    0.156325
  11 H :    0.145908
  12 O :   -0.305157
  13 H :    0.148967
  14 H :    0.144256
  15 O :   -0.283734
  16 H :    0.139966
  17 H :    0.139631
  18 O :   -0.298085
  19 H :    0.150934
  20 H :    0.157484
  21 O :   -0.295740
  22 H :    0.133550
  23 H :    0.139729
  24 O :   -0.278286
  25 H :    0.159290
  26 H :    0.145113
  27 O :   -0.300148
  28 H :    0.150047
  29 H :    0.155856
  30 O :   -0.291167
  31 H :    0.151484
  32 H :    0.138951
  33 O :   -0.289004
  34 H :    0.144124
  35 H :    0.157512
  36 O :   -0.287271
  37 H :    0.147150
  38 H :    0.156196
  39 O :   -0.284164
  40 H :    0.139439
  41 H :    0.141382
  42 O :   -0.300039
  43 H :    0.140161
  44 H :    0.139373

  Mayer bond orders larger than 0.100000
B(  0-O ,  1-H ) :   0.8293 B(  0-O ,  2-H ) :   0.8509 B(  0-O , 11-H ) :   0.1507
B(  3-O ,  4-H ) :   0.8739 B(  3-O ,  5-H ) :   0.8313 B(  3-O , 19-H ) :   0.1028
B(  6-O ,  7-H ) :   0.8273 B(  6-O ,  8-H ) :   0.7518 B(  6-O , 22-H ) :   0.1218
B(  8-H , 15-O ) :   0.1461 B(  9-O , 10-H ) :   0.8933 B(  9-O , 11-H ) :   0.7529
B(  9-O , 26-H ) :   0.1070 B( 12-O , 13-H ) :   0.8179 B( 12-O , 14-H ) :   0.8438
B( 15-O , 16-H ) :   0.8267 B( 15-O , 17-H ) :   0.8482 B( 18-O , 19-H ) :   0.7895
B( 18-O , 20-H ) :   0.8949 B( 21-O , 22-H ) :   0.7641 B( 21-O , 23-H ) :   0.8400
B( 24-O , 25-H ) :   0.8910 B( 24-O , 26-H ) :   0.7979 B( 27-O , 28-H ) :   0.8385
B( 27-O , 29-H ) :   0.9024 B( 30-O , 31-H ) :   0.8321 B( 30-O , 32-H ) :   0.7731
B( 30-O , 37-H ) :   0.1023 B( 32-H , 39-O ) :   0.1247 B( 33-O , 34-H ) :   0.7731
B( 33-O , 35-H ) :   0.8929 B( 34-H , 36-O ) :   0.1298 B( 36-O , 37-H ) :   0.7966
B( 36-O , 38-H ) :   0.8979 B( 39-O , 40-H ) :   0.8402 B( 39-O , 41-H ) :   0.8548
B( 42-O , 43-H ) :   0.8668 B( 42-O , 44-H ) :   0.8545

Dispersion correction           -0.040583127
FINAL SINGLE POINT ENERGY     -1146.664487549516

DIPOLE MOMENT
-------------

Method             : SCF
Type of density    : Electron Density
Multiplicity       :   1
Irrep              :   0
Energy             : -1146.6239044229882893 Eh
Relativity type    :
Basis              : AO
                                X                 Y                 Z
Electronic contribution:     -0.095662282      -0.156998881      -0.213943578
Nuclear contribution   :     -0.211571091       0.827979923       0.097683347
                        -----------------------------------------
Total Dipole Moment    :     -0.307233373       0.670981042      -0.116260230
                        -----------------------------------------
Magnitude (a.u.)       :      0.747077202
Magnitude (Debye)      :      1.898919337

VIBRATIONAL FREQUENCIES
-----------------------

Scaling factor for frequencies =  1.000000000  (already applied!)

     0:       0.00 cm**-1
     1:       0.00 cm**-1
     2:       0.00 cm**-1
     3:       0.00 cm**-1
     4:       0.00 cm**-1
     5:       0.00 cm**-1
     6:      34.13 cm**-1
     7:      40.46 cm**-1
     8:      42.01 cm**-1
     9:      46.04 cm**-1
    10:      48.35 cm**-1
    11:      54.86 cm**-1
    12:      63.02 cm**-1
    13:      66.38 cm**-1
    14:      68.78 cm**-1
    15:      71.04 cm**-1
    16:      76.17 cm**-1
    17:      80.27 cm**-1
    18:      89.06 cm**-1
    19:      90.94 cm**-1
    20:      99.36 cm**-1
    21:     113.32 cm**-1
    22:     124.28 cm**-1
    23:     131.57 cm**-1
    24:     150.97 cm**-1
    25:     155.69 cm**-1
    26:     157.50 cm**-1
    27:     160.17 cm**-1
    28:     171.19 cm**-1
    29:     181.21 cm**-1
    30:     182.08 cm**-1
    31:     189.00 cm**-1
    32:     193.91 cm**-1
    33:     204.57 cm**-1
    34:     213.81 cm**-1
    35:     216.92 cm**-1
    36:     237.44 cm**-1
    37:     242.17 cm**-1
    38:     261.00 cm**-1
    39:     266.69 cm**-1
    40:     274.83 cm**-1
    41:     275.97 cm**-1
    42:     277.13 cm**-1
    43:     283.53 cm**-1
    44:     289.11 cm**-1
    45:     292.09 cm**-1
    46:     307.57 cm**-1
    47:     311.82 cm**-1
    48:     317.12 cm**-1
    49:     341.94 cm**-1
    50:     355.47 cm**-1
    51:     391.93 cm**-1
    52:     399.75 cm**-1
    53:     439.35 cm**-1
    54:     446.84 cm**-1
    55:     461.68 cm**-1
    56:     467.86 cm**-1
    57:     484.63 cm**-1
    58:     496.11 cm**-1
    59:     513.10 cm**-1
    60:     523.89 cm**-1
    61:     536.63 cm**-1
    62:     542.95 cm**-1
    63:     555.79 cm**-1
    64:     563.15 cm**-1
    65:     583.66 cm**-1
    66:     600.39 cm**-1
    67:     605.77 cm**-1
    68:     631.40 cm**-1
    69:     642.37 cm**-1
    70:     660.54 cm**-1
    71:     668.12 cm**-1
    72:     679.11 cm**-1
    73:     699.94 cm**-1
    74:     709.01 cm**-1
    75:     728.28 cm**-1
    76:     745.78 cm**-1
    77:     753.96 cm**-1
    78:     781.00 cm**-1
    79:     790.03 cm**-1
    80:     802.54 cm**-1
    81:     839.32 cm**-1
    82:     879.61 cm**-1
    83:     884.61 cm**-1
    84:     935.45 cm**-1
    85:     956.39 cm**-1
    86:     965.34 cm**-1
    87:     989.03 cm**-1
    88:    1031.74 cm**-1
    89:    1052.40 cm**-1
    90:    1643.64 cm**-1
    91:    1643.83 cm**-1
    92:    1647.26 cm**-1
    93:    1649.45 cm**-1
    94:    1662.39 cm**-1
    95:    1666.58 cm**-1
    96:    1681.76 cm**-1
    97:    1691.46 cm**-1
    98:    1693.45 cm**-1
    99:    1698.56 cm**-1
   100:    1710.47 cm**-1
   101:    1720.34 cm**-1
   102:    1726.65 cm**-1
   103:    1742.16 cm**-1
   104:    1749.96 cm**-1
   105:    3117.09 cm**-1
   106:    3145.27 cm**-1
   107:    3238.41 cm**-1
   108:    3277.71 cm**-1
   109:    3295.51 cm**-1
   110:    3362.85 cm**-1
   111:    3391.30 cm**-1
   112:    3398.82 cm**-1
   113:    3452.97 cm**-1
   114:    3513.43 cm**-1
   115:    3530.48 cm**-1
   116:    3556.44 cm**-1
   117:    3570.21 cm**-1
   118:    3587.61 cm**-1
   119:    3605.10 cm**-1
   120:    3611.84 cm**-1
   121:    3614.35 cm**-1
   122:    3634.94 cm**-1
   123:    3650.64 cm**-1
   124:    3654.79 cm**-1
   125:    3671.62 cm**-1
   126:    3685.45 cm**-1
   127:    3698.94 cm**-1
   128:    3756.32 cm**-1
   129:    3844.86 cm**-1
   130:    3845.43 cm**-1
   131:    3849.11 cm**-1
   132:    3850.41 cm**-1
   133:    3851.91 cm**-1
   134:    3854.27 cm**-1

IR SPECTRUM
-----------

 Mode   freq       eps      Int      T**2         TX        TY        TZ
       cm**-1   L/(mol*cm) km/mol    a.u.
----------------------------------------------------------------------------
  6:     34.13   0.000693    3.50  0.006334  ( 0.078378 -0.001170  0.013783)
  7:     40.46   0.000347    1.75  0.002676  ( 0.008849 -0.050570 -0.006383)
  8:     42.01   0.000611    3.09  0.004539  ( 0.025153 -0.024150 -0.057650)
  9:     46.04   0.000622    3.14  0.004213  (-0.021038 -0.040851 -0.045847)
 10:     48.35   0.000274    1.39  0.001772  ( 0.023225  0.031977  0.014483)
 11:     54.86   0.000154    0.78  0.000874  (-0.028344  0.006591  0.005210)
 12:     63.02   0.000042    0.21  0.000206  ( 0.010333  0.003573 -0.009312)
 13:     66.38   0.000264    1.33  0.001241  (-0.034612 -0.002066 -0.006249)
 14:     68.78   0.001093    5.53  0.004961  ( 0.054464  0.034729 -0.028078)
 15:     71.04   0.000401    2.03  0.001763  (-0.039957  0.012575  0.002847)
 16:     76.17   0.000620    3.13  0.002540  ( 0.011667 -0.040910 -0.027017)
 17:     80.27   0.000278    1.40  0.001079  ( 0.021150 -0.016226  0.019205)
 18:     89.06   0.000725    3.66  0.002541  (-0.004028 -0.038639 -0.032121)
 19:     90.94   0.000064    0.33  0.000221  ( 0.008527  0.010293  0.006485)
 20:     99.36   0.000043    0.22  0.000134  ( 0.000502 -0.010291  0.005303)
 21:    113.32   0.000384    1.94  0.001058  (-0.004493  0.029634  0.012630)
 22:    124.28   0.000482    2.44  0.001211  ( 0.005041 -0.034431  0.000055)
 23:    131.57   0.000204    1.03  0.000484  ( 0.012564 -0.014950  0.010145)
 24:    150.97   0.001699    8.59  0.003512  (-0.018962  0.055642  0.007510)
 25:    155.69   0.000902    4.56  0.001807  (-0.010655  0.029310  0.028888)
 26:    157.50   0.001537    7.77  0.003046  (-0.033654 -0.043333 -0.005997)
 27:    160.17   0.002386   12.06  0.004649  ( 0.033091 -0.047563 -0.035943)
 28:    171.19   0.002491   12.59  0.004540  ( 0.059788  0.028590  0.012167)
 29:    181.21   0.004560   23.05  0.007854  (-0.054167  0.064516  0.027519)
 30:    182.08   0.001185    5.99  0.002031  (-0.035083 -0.020624 -0.019373)
 31:    189.00   0.002664   13.46  0.004398  (-0.037045 -0.009760  0.054136)
 32:    193.91   0.015578   78.72  0.025070  (-0.141368 -0.031866  0.063795)
 33:    204.57   0.002872   14.51  0.004381  (-0.014559  0.023302  0.060216)
 34:    213.81   0.005481   27.70  0.007999  ( 0.047085  0.020133 -0.073328)
 35:    216.92   0.004158   21.01  0.005982  ( 0.010352 -0.062954 -0.043726)
 36:    237.44   0.002926   14.79  0.003846  ( 0.040369  0.022321 -0.041450)
 37:    242.17   0.001998   10.10  0.002575  ( 0.023912 -0.038012 -0.023629)
 38:    261.00   0.003109   15.71  0.003718  ( 0.038490  0.004034  0.047117)
 39:    266.69   0.005139   25.97  0.006013  (-0.019274 -0.070723 -0.025302)
 40:    274.83   0.002041   10.31  0.002317  (-0.015830 -0.045450  0.001070)
 41:    275.97   0.016935   85.58  0.019150  (-0.013342  0.125306  0.057184)
 42:    277.13   0.006124   30.95  0.006896  (-0.053524 -0.054936 -0.031824)
 43:    283.53   0.013533   68.39  0.014896  ( 0.084179 -0.054545  0.069530)
 44:    289.11   0.005203   26.29  0.005616  ( 0.074801  0.004080 -0.002041)
 45:    292.09   0.004141   20.93  0.004424  (-0.056443  0.005112  0.034819)
 46:    307.57   0.008304   41.96  0.008425  ( 0.066259  0.022414  0.059434)
 47:    311.82   0.016034   81.03  0.016046  ( 0.017980  0.090818 -0.086457)
 48:    317.12   0.006082   30.74  0.005985  (-0.005734  0.025448 -0.072835)
 49:    341.94   0.002392   12.09  0.002183  (-0.002528 -0.012727 -0.044880)
 50:    355.47   0.004480   22.64  0.003933  ( 0.051833  0.033706 -0.010495)
 51:    391.93   0.004596   23.22  0.003659  ( 0.011935 -0.052499 -0.027578)
 52:    399.75   0.016807   84.94  0.013121  (-0.014012  0.113684  0.000647)
 53:    439.35   0.005055   25.54  0.003590  ( 0.001853 -0.052633 -0.028573)
 54:    446.84   0.006700   33.86  0.004679  ( 0.033816  0.058286 -0.011757)
 55:    461.68   0.002838   14.34  0.001918  (-0.019123 -0.039400  0.000626)
 56:    467.86   0.007720   39.01  0.005149  (-0.041907  0.036515  0.045382)
 57:    484.63   0.018030   91.12  0.011610  ( 0.002697 -0.021981 -0.105449)
 58:    496.11   0.010708   54.12  0.006736  ( 0.035028 -0.073820 -0.007712)
 59:    513.10   0.015763   79.66  0.009587  (-0.091816 -0.032889  0.008644)
 60:    523.89   0.005062   25.58  0.003015  ( 0.052519  0.002673  0.015803)
 61:    536.63   0.011553   58.38  0.006718  (-0.023319 -0.078075 -0.008870)
 62:    542.95   0.008721   44.07  0.005012  (-0.026699  0.049021 -0.043548)
 63:    555.79   0.013003   65.71  0.007301  (-0.020257 -0.080778  0.019116)
 64:    563.15   0.036696  185.45  0.020335  ( 0.132159  0.009599 -0.052692)
 65:    583.66   0.003500   17.69  0.001872  ( 0.035291  0.004033  0.024696)
 66:    600.39   0.006770   34.22  0.003519  (-0.036529 -0.028013 -0.037416)
 67:    605.77   0.000748    3.78  0.000385  (-0.007332  0.001870 -0.018111)
 68:    631.40   0.009098   45.98  0.004497  ( 0.034950  0.005242 -0.056989)
 69:    642.37   0.022192  112.15  0.010781  ( 0.066941  0.067419 -0.041885)
 70:    660.54   0.039614  200.19  0.018715  (-0.132526 -0.025789 -0.022069)
 71:    668.12   0.022694  114.68  0.010600  ( 0.051695 -0.083345  0.031318)
 72:    679.11   0.003130   15.82  0.001438  ( 0.037765  0.002792 -0.002079)
 73:    699.94   0.001355    6.85  0.000604  ( 0.005355  0.013850 -0.019590)
 74:    709.01   0.015882   80.26  0.006990  ( 0.001438  0.008540  0.083157)
 75:    728.28   0.006130   30.98  0.002626  (-0.035921  0.005836  0.036085)
 76:    745.78   0.070389  355.72  0.029454  ( 0.003889 -0.011619 -0.171182)
 77:    753.96   0.012028   60.78  0.004978  ( 0.036261 -0.012729 -0.059172)
 78:    781.00   0.018650   94.25  0.007452  (-0.010921  0.085398 -0.006322)
 79:    790.03   0.026840  135.64  0.010602  ( 0.090732 -0.036901  0.031746)
 80:    802.54   0.042707  215.82  0.016606  (-0.059859 -0.066384 -0.092825)
 81:    839.32   0.018821   95.11  0.006998  ( 0.043271 -0.058740 -0.040925)
 82:    879.61   0.065019  328.58  0.023067  ( 0.025808 -0.142846 -0.044677)
 83:    884.61   0.072324  365.49  0.025513  ( 0.151552 -0.025268  0.043668)
 84:    935.45   0.063990  323.38  0.021347  (-0.032320 -0.040990  0.136464)
 85:    956.39   0.036320  183.55  0.011851  (-0.032633  0.081001 -0.064999)
 86:    965.34   0.022075  111.56  0.007136  (-0.055323 -0.049086  0.040818)
 87:    989.03   0.024419  123.41  0.007705  (-0.068781 -0.037214 -0.039865)
 88:   1031.74   0.015040   76.00  0.004549  (-0.014324 -0.004080 -0.065781)
 89:   1052.40   0.004448   22.48  0.001319  ( 0.013706  0.023631 -0.023933)
 90:   1643.64   0.035218  177.98  0.006686  ( 0.017179 -0.079172  0.011098)
 91:   1643.83   0.031343  158.40  0.005950  ( 0.070039  0.013091  0.029552)
 92:   1647.26   0.016505   83.41  0.003127  ( 0.035529  0.012330 -0.041381)
 93:   1649.45   0.008873   44.84  0.001679  (-0.033926 -0.002181 -0.022868)
 94:   1662.39   0.024333  122.97  0.004568  (-0.004073  0.061036 -0.028737)
 95:   1666.58   0.012295   62.14  0.002302  ( 0.004616  0.039854 -0.026318)
 96:   1681.76   0.004319   21.83  0.000801  (-0.000688 -0.004985  0.027859)
 97:   1691.46   0.008740   44.17  0.001612  (-0.016225  0.036167 -0.006409)
 98:   1693.45   0.023138  116.93  0.004264  ( 0.022874 -0.059704  0.013271)
 99:   1698.56   0.009935   50.21  0.001825  (-0.034206 -0.007032  0.024613)
100:   1710.47   0.027237  137.65  0.004969  ( 0.041658  0.051013  0.025132)
101:   1720.34   0.008362   42.26  0.001517  ( 0.020344  0.027626 -0.018432)
102:   1726.65   0.015893   80.32  0.002872  ( 0.038577 -0.037083  0.003018)
103:   1742.16   0.010128   51.18  0.001814  ( 0.025449  0.032702  0.009850)
104:   1749.96   0.010657   53.86  0.001900  (-0.035985 -0.002130 -0.024516)
105:   3117.09   0.238388  1204.71  0.023866  (-0.147151 -0.040237 -0.024363)
106:   3145.27   0.167625  847.11  0.016631  (-0.000440  0.113363  0.061479)
107:   3238.41   0.169845  858.33  0.016367  (-0.109020  0.025962 -0.061704)
108:   3277.71   0.289293  1461.97  0.027543  (-0.021325 -0.153261 -0.059995)
109:   3295.51   0.104046  525.80  0.009852  ( 0.010377  0.038794 -0.090773)
110:   3362.85   0.164919  833.43  0.015304  (-0.046207 -0.112224 -0.023973)
111:   3391.30   0.139348  704.21  0.012823  (-0.068172 -0.079966  0.042199)
112:   3398.82   0.066198  334.54  0.006078  (-0.003355 -0.053641 -0.056474)
113:   3452.97   0.142683  721.06  0.012895  ( 0.000846 -0.094835 -0.062455)
114:   3513.43   0.086476  437.01  0.007681  (-0.066110  0.042870 -0.038373)
115:   3530.48   0.104014  525.64  0.009194  (-0.048556  0.078861  0.024841)
116:   3556.44   0.049492  250.11  0.004343  ( 0.035802 -0.037361 -0.040805)
117:   3570.21   0.098538  497.97  0.008613  (-0.004543  0.054634  0.074883)
118:   3587.61   0.033868  171.15  0.002946  ( 0.020322 -0.033862  0.037234)
119:   3605.10   0.132560  669.90  0.011475  (-0.098335 -0.023400  0.035458)
120:   3611.84   0.159936  808.25  0.013818  (-0.116382 -0.016452  0.001725)
121:   3614.35   0.058113  293.68  0.005017  (-0.001647  0.070666  0.004591)
122:   3634.94   0.041299  208.71  0.003546  ( 0.006588 -0.058933 -0.005396)
123:   3650.64   0.042243  213.48  0.003611  (-0.059511 -0.008331 -0.000138)
124:   3654.79   0.053836  272.06  0.004597  (-0.021426 -0.001461  0.064308)
125:   3671.62   0.139627  705.62  0.011867  ( 0.081780 -0.045649 -0.055637)
126:   3685.45   0.062118  313.92  0.005260  (-0.042384  0.048134 -0.033859)
127:   3698.94   0.076514  386.67  0.006455  ( 0.048669  0.054630 -0.033196)
128:   3756.32   0.042698  215.78  0.003547  ( 0.050177  0.017343  0.026995)
129:   3844.86   0.011507   58.15  0.000934  ( 0.017254  0.024339  0.006625)
130:   3845.43   0.011223   56.72  0.000911  ( 0.023867 -0.007562  0.016850)
131:   3849.11   0.011848   59.88  0.000961  ( 0.017003  0.016581 -0.019914)
132:   3850.41   0.012914   65.26  0.001047  ( 0.010497 -0.022789 -0.020424)
133:   3851.91   0.014100   71.25  0.001142  (-0.015661  0.002661  0.029832)
134:   3854.27   0.014861   75.10  0.001203  ( 0.013049 -0.032120 -0.001112)

--------------------------
THERMOCHEMISTRY AT 400.00K
--------------------------

Temperature         ...   400.00 K
Pressure            ...     1.00 atm
Total Mass          ...   270.23 AMU
Quasi RRHO          ...     True
Cut-Off Frequency   ...     1.00 cm^-1

Throughout the following assumptions are being made:
  (1) The electronic state is orbitally nondegenerate
  (2) There are no thermally accessible electronically excited states
  (3) Hindered rotations indicated by low frequency modes are not
      treated as such but are treated as vibrations and this may
      cause some error
  (4) All equations used are the standard statistical mechanics
      equations for an ideal gas
  (5) All vibrations are strictly harmonic

freq.      34.13  E(vib)   ...       0.75
freq.      40.46  E(vib)   ...       0.74
freq.      42.01  E(vib)   ...       0.74
freq.      46.04  E(vib)   ...       0.73
freq.      48.35  E(vib)   ...       0.73
freq.      54.86  E(vib)   ...       0.72
freq.      63.02  E(vib)   ...       0.71
freq.      66.38  E(vib)   ...       0.70
freq.      68.78  E(vib)   ...       0.70
freq.      71.04  E(vib)   ...       0.70
freq.      76.17  E(vib)   ...       0.69
freq.      80.27  E(vib)   ...       0.69
freq.      89.06  E(vib)   ...       0.67
freq.      90.94  E(vib)   ...       0.67
freq.      99.36  E(vib)   ...       0.66
freq.     113.32  E(vib)   ...       0.64
freq.     124.28  E(vib)   ...       0.63
freq.     131.57  E(vib)   ...       0.62
freq.     150.97  E(vib)   ...       0.60
freq.     155.69  E(vib)   ...       0.59
freq.     157.50  E(vib)   ...       0.59
freq.     160.17  E(vib)   ...       0.59
freq.     171.19  E(vib)   ...       0.58
freq.     181.21  E(vib)   ...       0.56
freq.     182.08  E(vib)   ...       0.56
freq.     189.00  E(vib)   ...       0.56
freq.     193.91  E(vib)   ...       0.55
freq.     204.57  E(vib)   ...       0.54
freq.     213.81  E(vib)   ...       0.53
freq.     216.92  E(vib)   ...       0.52
freq.     237.44  E(vib)   ...       0.50
freq.     242.17  E(vib)   ...       0.50
freq.     261.00  E(vib)   ...       0.48
freq.     266.69  E(vib)   ...       0.47
freq.     274.83  E(vib)   ...       0.47
freq.     275.97  E(vib)   ...       0.46
freq.     277.13  E(vib)   ...       0.46
freq.     283.53  E(vib)   ...       0.46
freq.     289.11  E(vib)   ...       0.45
freq.     292.09  E(vib)   ...       0.45
freq.     307.57  E(vib)   ...       0.43
freq.     311.82  E(vib)   ...       0.43
freq.     317.12  E(vib)   ...       0.43
freq.     341.94  E(vib)   ...       0.40
freq.     355.47  E(vib)   ...       0.39
freq.     391.93  E(vib)   ...       0.36
freq.     399.75  E(vib)   ...       0.36
freq.     439.35  E(vib)   ...       0.33
freq.     446.84  E(vib)   ...       0.32
freq.     461.68  E(vib)   ...       0.31
freq.     467.86  E(vib)   ...       0.31
freq.     484.63  E(vib)   ...       0.29
freq.     496.11  E(vib)   ...       0.29
freq.     513.10  E(vib)   ...       0.28
freq.     523.89  E(vib)   ...       0.27
freq.     536.63  E(vib)   ...       0.26
freq.     542.95  E(vib)   ...       0.26
freq.     555.79  E(vib)   ...       0.25
freq.     563.15  E(vib)   ...       0.24
freq.     583.66  E(vib)   ...       0.23
freq.     600.39  E(vib)   ...       0.22
freq.     605.77  E(vib)   ...       0.22
freq.     631.40  E(vib)   ...       0.21
freq.     642.37  E(vib)   ...       0.20
freq.     660.54  E(vib)   ...       0.19
freq.     668.12  E(vib)   ...       0.19
freq.     679.11  E(vib)   ...       0.18
freq.     699.94  E(vib)   ...       0.18
freq.     709.01  E(vib)   ...       0.17
freq.     728.28  E(vib)   ...       0.16
freq.     745.78  E(vib)   ...       0.16
freq.     753.96  E(vib)   ...       0.15
freq.     781.00  E(vib)   ...       0.14
freq.     790.03  E(vib)   ...       0.14
freq.     802.54  E(vib)   ...       0.14
freq.     839.32  E(vib)   ...       0.12
freq.     879.61  E(vib)   ...       0.11
freq.     884.61  E(vib)   ...       0.11
freq.     935.45  E(vib)   ...       0.10
freq.     956.39  E(vib)   ...       0.09
freq.     965.34  E(vib)   ...       0.09
freq.     989.03  E(vib)   ...       0.08
freq.    1031.74  E(vib)   ...       0.07
freq.    1052.40  E(vib)   ...       0.07
freq.    1643.64  E(vib)   ...       0.01
freq.    1643.83  E(vib)   ...       0.01
freq.    1647.26  E(vib)   ...       0.01
freq.    1649.45  E(vib)   ...       0.01
freq.    1662.39  E(vib)   ...       0.01
freq.    1666.58  E(vib)   ...       0.01
freq.    1681.76  E(vib)   ...       0.01
freq.    1691.46  E(vib)   ...       0.01
freq.    1693.45  E(vib)   ...       0.01
freq.    1698.56  E(vib)   ...       0.01
freq.    1710.47  E(vib)   ...       0.01
freq.    1720.34  E(vib)   ...       0.01
freq.    1726.65  E(vib)   ...       0.01
freq.    1742.16  E(vib)   ...       0.01
freq.    1749.96  E(vib)   ...       0.01
freq.    3117.09  E(vib)   ...       0.00
freq.    3145.27  E(vib)   ...       0.00
freq.    3238.41  E(vib)   ...       0.00
freq.    3277.71  E(vib)   ...       0.00
freq.    3295.51  E(vib)   ...       0.00
freq.    3362.85  E(vib)   ...       0.00
freq.    3391.30  E(vib)   ...       0.00
freq.    3398.82  E(vib)   ...       0.00
freq.    3452.97  E(vib)   ...       0.00
freq.    3513.43  E(vib)   ...       0.00
freq.    3530.48  E(vib)   ...       0.00
freq.    3556.44  E(vib)   ...       0.00
freq.    3570.21  E(vib)   ...       0.00
freq.    3587.61  E(vib)   ...       0.00
freq.    3605.10  E(vib)   ...       0.00
freq.    3611.84  E(vib)   ...       0.00
freq.    3614.35  E(vib)   ...       0.00
freq.    3634.94  E(vib)   ...       0.00
freq.    3650.64  E(vib)   ...       0.00
freq.    3654.79  E(vib)   ...       0.00
freq.    3671.62  E(vib)   ...       0.00
freq.    3685.45  E(vib)   ...       0.00
freq.    3698.94  E(vib)   ...       0.00
freq.    3756.32  E(vib)   ...       0.00
freq.    3844.86  E(vib)   ...       0.00
freq.    3845.43  E(vib)   ...       0.00
freq.    3849.11  E(vib)   ...       0.00
freq.    3850.41  E(vib)   ...       0.00
freq.    3851.91  E(vib)   ...       0.00
freq.    3854.27  E(vib)   ...       0.00

------------
INNER ENERGY
------------

The inner energy is: U= E(el) + E(ZPE) + E(vib) + E(rot) + E(trans)
    E(el)   - is the total energy from the electronic structure calculation
              = E(kin-el) + E(nuc-el) + E(el-el) + E(nuc-nuc)
    E(ZPE)  - the the zero temperature vibrational energy from the frequency calculation
    E(vib)  - the the finite temperature correction to E(ZPE) due to population
              of excited vibrational states
    E(rot)  - is the rotational thermal energy
    E(trans)- is the translational thermal energy

Rotational constants in cm-1:     0.010547     0.008147     0.005830

                             ****ORCA TERMINATED NORMALLY****
TOTAL RUN TIME: 0 days 0 hours 30 minutes 52 seconds 401 msec
