                         Program Version 6.0.0  -   RELEASE  -
|  1> ! B3LYP D4 def2-TZVP VeryTightSCF Freq
|  2>
|  3>
|  4> %pal
|  5>    nprocs 8
|  6> end
|  7>
|  8> %freq
|  9>    Temp 300.0
| 10>
| 11> end
| 12>
| 13> %maxcore 9000
| 14>
| 15> %geom
| 16>    MaxIter 600
| 17> end
| 18>
| 19> * xyz 0 1
| 20> O       -3.311088000      5.913209000     -0.307027000
| 21> H       -3.289426000      5.045206000     -0.759691000
| 22> H       -4.007511000      5.808474000      0.364194000
| 23> O       -5.710068000      2.269588000      1.253059000
| 24> H       -4.784719000      2.073208000      1.456822000
| 25> H       -5.969597000      1.637674000      0.555301000
| 26> O       -2.717454000      3.313655000     -0.976146000
| 27> H       -1.794758000      3.392081000     -1.280684000
| 28> H       -3.106340000      2.509293000     -1.417799000
| 29> O       -0.709287000      6.006511000      0.240315000
| 30> H       -0.386488000      6.912881000      0.226048000
| 31> H       -1.701092000      6.052406000      0.121012000
| 32> O        0.565925000      1.875248000      0.548543000
| 33> H        0.556786000      2.538130000      1.274441000
| 34> H        0.434335000      2.428942000     -0.241355000
| 35> O       -3.681344000      1.071316000     -1.999342000
| 36> H       -3.148664000      0.371291000     -1.568054000
| 37> H       -4.599727000      0.885773000     -1.737008000
| 38> O       -5.168148000      4.881504000      1.628707000
| 39> H       -5.581595000      4.019437000      1.381633000
| 40> H       -5.736350000      5.281889000      2.293723000
| 41> O       -2.897237000      3.160601000      1.731636000
| 42> H       -2.811469000      3.214604000      0.745874000
| 43> H       -3.528778000      3.858659000      1.976366000
| 44> O       -0.020535000      3.915485000     -1.374772000
| 45> H        0.388774000      4.128705000     -2.218818000
| 46> H       -0.124318000      4.756365000     -0.871587000
| 47> O        0.487298000     -0.712482000     -0.603847000
| 48> H        0.669930000      0.118990000     -0.126694000
| 49> H        1.117012000     -1.355958000     -0.265141000
| 50> O       -2.325357000     -0.809772000     -0.417077000
| 51> H       -1.405132000     -1.021569000     -0.665860000
| 52> H       -2.211660000     -0.314062000      0.434344000
| 53> O       -6.111478000      0.285885000     -0.709993000
| 54> H       -5.709474000     -0.579543000     -0.436384000
| 55> H       -6.930755000      0.078384000     -1.170226000
| 56> O       -4.756341000     -1.952083000     -0.126833000
| 57> H       -3.809826000     -1.705030000     -0.257334000
| 58> H       -4.803856000     -2.406913000      0.719562000
| 59> O       -1.713169000      0.625986000      1.764532000
| 60> H       -0.907483000      1.013203000      1.371415000
| 61> H       -2.249730000      1.398096000      2.008291000
| 62> O       -0.167499000      3.938180000      2.247245000
| 63> H       -0.190640000      4.751199000      1.716604000
| 64> H       -1.103195000      3.668584000      2.286362000
| 65> *
| 66>
| 67>                          ****END OF INPUT****

CARTESIAN COORDINATES (ANGSTROEM)
---------------------------------
  O     -3.311088    5.913209   -0.307027
  H     -3.289426    5.045206   -0.759691
  H     -4.007511    5.808474    0.364194
  O     -5.710068    2.269588    1.253059
  H     -4.784719    2.073208    1.456822
  H     -5.969597    1.637674    0.555301
  O     -2.717454    3.313655   -0.976146
  H     -1.794758    3.392081   -1.280684
  H     -3.106340    2.509293   -1.417799
  O     -0.709287    6.006511    0.240315
  H     -0.386488    6.912881    0.226048
  H     -1.701092    6.052406    0.121012
  O      0.565925    1.875248    0.548543
  H      0.556786    2.538130    1.274441
  H      0.434335    2.428942   -0.241355
  O     -3.681344    1.071316   -1.999342
  H     -3.148664    0.371291   -1.568054
  H     -4.599727    0.885773   -1.737008
  O     -5.168148    4.881504    1.628707
  H     -5.581595    4.019437    1.381633
  H     -5.736350    5.281889    2.293723
  O     -2.897237    3.160601    1.731636
  H     -2.811469    3.214604    0.745874
  H     -3.528778    3.858659    1.976366
  O     -0.020535    3.915485   -1.374772
  H      0.388774    4.128705   -2.218818
  H     -0.124318    4.756365   -0.871587
  O      0.487298   -0.712482   -0.603847
  H      0.669930    0.118990   -0.126694
  H      1.117012   -1.355958   -0.265141
  O     -2.325357   -0.809772   -0.417077
  H     -1.405132   -1.021569   -0.665860
  H     -2.211660   -0.314062    0.434344
  O     -6.111478    0.285885   -0.709993
  H     -5.709474   -0.579543   -0.436384
  H     -6.930755    0.078384   -1.170226
  O     -4.756341   -1.952083   -0.126833
  H     -3.809826   -1.705030   -0.257334
  H     -4.803856   -2.406913    0.719562
  O     -1.713169    0.625986    1.764532
  H     -0.907483    1.013203    1.371415
  H     -2.249730    1.398096    2.008291
  O     -0.167499    3.938180    2.247245
  H     -0.190640    4.751199    1.716604
  H     -1.103195    3.668584    2.286362

 Total Charge           Charge          ....    0
 Multiplicity           Mult            ....    1
 Number of Electrons    NEL             ....  150
 Basis Dimension        Dim             ....  645

ORBITAL ENERGIES
----------------

  NO   OCC          E(Eh)            E(eV)
   0   2.0000     -19.149885      -521.0949
   1   2.0000     -19.144278      -520.9423
   2   2.0000     -19.140421      -520.8373
   3   2.0000     -19.139224      -520.8048
   4   2.0000     -19.129665      -520.5446
   5   2.0000     -19.127399      -520.4830
   6   2.0000     -19.122254      -520.3430
   7   2.0000     -19.120249      -520.2884
   8   2.0000     -19.117485      -520.2132
   9   2.0000     -19.116971      -520.1992
  10   2.0000     -19.116297      -520.1809
  11   2.0000     -19.115609      -520.1622
  12   2.0000     -19.110021      -520.0101
  13   2.0000     -19.107233      -519.9343
  14   2.0000     -19.105783      -519.8948
  15   2.0000      -1.039556       -28.2878
  16   2.0000      -1.030476       -28.0407
  17   2.0000      -1.027629       -27.9632
  18   2.0000      -1.024592       -27.8806
  19   2.0000      -1.017091       -27.6765
  20   2.0000      -1.013578       -27.5809
  21   2.0000      -1.010474       -27.4964
  22   2.0000      -1.006231       -27.3809
  23   2.0000      -1.002484       -27.2790
  24   2.0000      -1.001324       -27.2474
  25   2.0000      -0.999488       -27.1975
  26   2.0000      -0.996513       -27.1165
  27   2.0000      -0.989719       -26.9316
  28   2.0000      -0.984862       -26.7995
  29   2.0000      -0.981547       -26.7093
  30   2.0000      -0.567202       -15.4344
  31   2.0000      -0.557604       -15.1732
  32   2.0000      -0.552180       -15.0256
  33   2.0000      -0.550600       -14.9826
  34   2.0000      -0.540792       -14.7157
  35   2.0000      -0.537674       -14.6308
  36   2.0000      -0.536070       -14.5872
  37   2.0000      -0.531856       -14.4725
  38   2.0000      -0.527002       -14.3404
  39   2.0000      -0.525001       -14.2860
  40   2.0000      -0.518893       -14.1198
  41   2.0000      -0.517299       -14.0764
  42   2.0000      -0.514627       -14.0037
  43   2.0000      -0.512229       -13.9385
  44   2.0000      -0.505132       -13.7453
  45   2.0000      -0.450715       -12.2646
  46   2.0000      -0.440936       -11.9985
  47   2.0000      -0.439661       -11.9638
  48   2.0000      -0.424954       -11.5636
  49   2.0000      -0.419661       -11.4196
  50   2.0000      -0.417901       -11.3717
  51   2.0000      -0.403504       -10.9799
  52   2.0000      -0.398698       -10.8491
  53   2.0000      -0.393610       -10.7107
  54   2.0000      -0.387404       -10.5418
  55   2.0000      -0.379871       -10.3368
  56   2.0000      -0.378499       -10.2995
  57   2.0000      -0.372584       -10.1385
  58   2.0000      -0.370569       -10.0837
  59   2.0000      -0.353422        -9.6171
  60   2.0000      -0.343546        -9.3484
  61   2.0000      -0.336847        -9.1661
  62   2.0000      -0.334696        -9.1076
  63   2.0000      -0.331232        -9.0133
  64   2.0000      -0.326613        -8.8876
  65   2.0000      -0.324674        -8.8348
  66   2.0000      -0.319823        -8.7028
  67   2.0000      -0.317433        -8.6378
  68   2.0000      -0.315698        -8.5906
  69   2.0000      -0.314511        -8.5583
  70   2.0000      -0.312280        -8.4976
  71   2.0000      -0.311261        -8.4699
  72   2.0000      -0.303057        -8.2466
  73   2.0000      -0.299732        -8.1561
  74   2.0000      -0.298220        -8.1150
  75   0.0000      -0.006193        -0.1685
  76   0.0000       0.009490         0.2582
  77   0.0000       0.021377         0.5817
  78   0.0000       0.031010         0.8438
  79   0.0000       0.039325         1.0701

MULLIKEN ATOMIC CHARGES
-----------------------
   0 O :   -0.691433
   1 H :    0.358671
   2 H :    0.358989
   3 O :   -0.691865
   4 H :    0.324566
   5 H :    0.366499
   6 O :   -0.755394
   7 H :    0.353583
   8 H :    0.391550
   9 O :   -0.715586
  10 H :    0.331973
  11 H :    0.378248
  12 O :   -0.728819
  13 H :    0.371116
  14 H :    0.362324
  15 O :   -0.698437
  16 H :    0.354167
  17 H :    0.345792
  18 O :   -0.711621
  19 H :    0.382035
  20 H :    0.330418
  21 O :   -0.763120
  22 H :    0.374254
  23 H :    0.348579
  24 O :   -0.697084
  25 H :    0.335398
  26 H :    0.364735
  27 O :   -0.677991
  28 H :    0.360525
  29 H :    0.321126
  30 O :   -0.747206
  31 H :    0.369646
  32 H :    0.372443
  33 O :   -0.712684
  34 H :    0.373336
  35 H :    0.332839
  36 O :   -0.684709
  37 H :    0.377816
  38 H :    0.325997
  39 O :   -0.686914
  40 H :    0.338554
  41 H :    0.359635
  42 O :   -0.689851
  43 H :    0.338919
  44 H :    0.348978
Sum of atomic charges:   -0.0000000

LOEWDIN ATOMIC CHARGES
----------------------
   0 O :   -0.284604
   1 H :    0.143063
   2 H :    0.146567
   3 O :   -0.297445
   4 H :    0.143104
   5 H :    0.146340
   6 O :   -0.291755
   7 H :    0.136567
   8 H :    0.140171
   9 O :   -0.292039
  10 H :    0.156325
  11 H :    0.145908
  12 O :   -0.305157
  13 H :    0.148967
  14 H :    0.144256
  15 O :   -0.283734
  16 H :    0.139966
  17 H :    0.139631
  18 O :   -0.298085
  19 H :    0.150934
  20 H :    0.157484
  21 O :   -0.295740
  22 H :    0.133549
  23 H :    0.139729
  24 O :   -0.278286
  25 H :    0.159290
  26 H :    0.145113
  27 O :   -0.300147
  28 H :    0.150047
  29 H :    0.155856
  30 O :   -0.291167
  31 H :    0.151484
  32 H :    0.138951
  33 O :   -0.289004
  34 H :    0.144124
  35 H :    0.157512
  36 O :   -0.287271
  37 H :    0.147150
  38 H :    0.156196
  39 O :   -0.284164
  40 H :    0.139439
  41 H :    0.141382
  42 O :   -0.300039
  43 H :    0.140161
  44 H :    0.139373

  Mayer bond orders larger than 0.100000
B(  0-O ,  1-H ) :   0.8293 B(  0-O ,  2-H ) :   0.8509 B(  0-O , 11-H ) :   0.1507
B(  3-O ,  4-H ) :   0.8739 B(  3-O ,  5-H ) :   0.8313 B(  3-O , 19-H ) :   0.1028
B(  6-O ,  7-H ) :   0.8273 B(  6-O ,  8-H ) :   0.7518 B(  6-O , 22-H ) :   0.1218
B(  8-H , 15-O ) :   0.1461 B(  9-O , 10-H ) :   0.8933 B(  9-O , 11-H ) :   0.7529
B(  9-O , 26-H ) :   0.1070 B( 12-O , 13-H ) :   0.8179 B( 12-O , 14-H ) :   0.8438
B( 15-O , 16-H ) :   0.8267 B( 15-O , 17-H ) :   0.8482 B( 18-O , 19-H ) :   0.7895
B( 18-O , 20-H ) :   0.8949 B( 21-O , 22-H ) :   0.7641 B( 21-O , 23-H ) :   0.8400
B( 24-O , 25-H ) :   0.8910 B( 24-O , 26-H ) :   0.7979 B( 27-O , 28-H ) :   0.8385
B( 27-O , 29-H ) :   0.9024 B( 30-O , 31-H ) :   0.8321 B( 30-O , 32-H ) :   0.7731
B( 30-O , 37-H ) :   0.1023 B( 32-H , 39-O ) :   0.1247 B( 33-O , 34-H ) :   0.7731
B( 33-O , 35-H ) :   0.8929 B( 34-H , 36-O ) :   0.1298 B( 36-O , 37-H ) :   0.7966
B( 36-O , 38-H ) :   0.8979 B( 39-O , 40-H ) :   0.8402 B( 39-O , 41-H ) :   0.8548
B( 42-O , 43-H ) :   0.8668 B( 42-O , 44-H ) :   0.8545

Dispersion correction           -0.040583127
FINAL SINGLE POINT ENERGY     -1146.664487549389

DIPOLE MOMENT
-------------

Method             : SCF
Type of density    : Electron Density
Multiplicity       :   1
Irrep              :   0
Energy             : -1146.6239044228618695 Eh
Relativity type    :
Basis              : AO
                                X                 Y                 Z
Electronic contribution:     -0.095662795      -0.156997482      -0.213945779
Nuclear contribution   :     -0.211571091       0.827979923       0.097683347
                        -----------------------------------------
Total Dipole Moment    :     -0.307233886       0.670982441      -0.116262432
                        -----------------------------------------
Magnitude (a.u.)       :      0.747079012
Magnitude (Debye)      :      1.898923938

VIBRATIONAL FREQUENCIES
-----------------------

Scaling factor for frequencies =  1.000000000  (already applied!)

     0:       0.00 cm**-1
     1:       0.00 cm**-1
     2:       0.00 cm**-1
     3:       0.00 cm**-1
     4:       0.00 cm**-1
     5:       0.00 cm**-1
     6:      34.13 cm**-1
     7:      40.46 cm**-1
     8:      42.02 cm**-1
     9:      46.04 cm**-1
    10:      48.35 cm**-1
    11:      54.86 cm**-1
    12:      63.02 cm**-1
    13:      66.39 cm**-1
    14:      68.78 cm**-1
    15:      71.05 cm**-1
    16:      76.17 cm**-1
    17:      80.27 cm**-1
    18:      89.06 cm**-1
    19:      90.94 cm**-1
    20:      99.36 cm**-1
    21:     113.32 cm**-1
    22:     124.28 cm**-1
    23:     131.57 cm**-1
    24:     150.97 cm**-1
    25:     155.69 cm**-1
    26:     157.50 cm**-1
    27:     160.17 cm**-1
    28:     171.19 cm**-1
    29:     181.21 cm**-1
    30:     182.08 cm**-1
    31:     189.01 cm**-1
    32:     193.93 cm**-1
    33:     204.58 cm**-1
    34:     213.81 cm**-1
    35:     216.92 cm**-1
    36:     237.44 cm**-1
    37:     242.17 cm**-1
    38:     261.00 cm**-1
    39:     266.69 cm**-1
    40:     274.83 cm**-1
    41:     275.98 cm**-1
    42:     277.13 cm**-1
    43:     283.53 cm**-1
    44:     289.12 cm**-1
    45:     292.09 cm**-1
    46:     307.57 cm**-1
    47:     311.83 cm**-1
    48:     317.13 cm**-1
    49:     341.94 cm**-1
    50:     355.47 cm**-1
    51:     391.94 cm**-1
    52:     399.76 cm**-1
    53:     439.36 cm**-1
    54:     446.84 cm**-1
    55:     461.68 cm**-1
    56:     467.87 cm**-1
    57:     484.64 cm**-1
    58:     496.12 cm**-1
    59:     513.11 cm**-1
    60:     523.90 cm**-1
    61:     536.64 cm**-1
    62:     542.96 cm**-1
    63:     555.79 cm**-1
    64:     563.16 cm**-1
    65:     583.67 cm**-1
    66:     600.39 cm**-1
    67:     605.77 cm**-1
    68:     631.40 cm**-1
    69:     642.37 cm**-1
    70:     660.54 cm**-1
    71:     668.13 cm**-1
    72:     679.12 cm**-1
    73:     699.95 cm**-1
    74:     709.02 cm**-1
    75:     728.28 cm**-1
    76:     745.78 cm**-1
    77:     753.96 cm**-1
    78:     781.00 cm**-1
    79:     790.04 cm**-1
    80:     802.54 cm**-1
    81:     839.33 cm**-1
    82:     879.61 cm**-1
    83:     884.62 cm**-1
    84:     935.45 cm**-1
    85:     956.39 cm**-1
    86:     965.34 cm**-1
    87:     989.03 cm**-1
    88:    1031.75 cm**-1
    89:    1052.40 cm**-1
    90:    1643.64 cm**-1
    91:    1643.83 cm**-1
    92:    1647.26 cm**-1
    93:    1649.45 cm**-1
    94:    1662.39 cm**-1
    95:    1666.58 cm**-1
    96:    1681.76 cm**-1
    97:    1691.46 cm**-1
    98:    1693.45 cm**-1
    99:    1698.56 cm**-1
   100:    1710.47 cm**-1
   101:    1720.34 cm**-1
   102:    1726.65 cm**-1
   103:    1742.16 cm**-1
   104:    1749.95 cm**-1
   105:    3117.09 cm**-1
   106:    3145.27 cm**-1
   107:    3238.42 cm**-1
   108:    3277.71 cm**-1
   109:    3295.51 cm**-1
   110:    3362.85 cm**-1
   111:    3391.30 cm**-1
   112:    3398.83 cm**-1
   113:    3452.97 cm**-1
   114:    3513.44 cm**-1
   115:    3530.48 cm**-1
   116:    3556.44 cm**-1
   117:    3570.22 cm**-1
   118:    3587.61 cm**-1
   119:    3605.10 cm**-1
   120:    3611.84 cm**-1
   121:    3614.35 cm**-1
   122:    3634.94 cm**-1
   123:    3650.65 cm**-1
   124:    3654.80 cm**-1
   125:    3671.62 cm**-1
   126:    3685.45 cm**-1
   127:    3698.95 cm**-1
   128:    3756.32 cm**-1
   129:    3844.87 cm**-1
   130:    3845.43 cm**-1
   131:    3849.11 cm**-1
   132:    3850.42 cm**-1
   133:    3851.91 cm**-1
   134:    3854.27 cm**-1

IR SPECTRUM
-----------

 Mode   freq       eps      Int      T**2         TX        TY        TZ
       cm**-1   L/(mol*cm) km/mol    a.u.
----------------------------------------------------------------------------
  6:     34.13   0.000693    3.50  0.006333  ( 0.078362 -0.001167  0.013809)
  7:     40.46   0.000347    1.76  0.002679  ( 0.008871 -0.050586 -0.006449)
  8:     42.02   0.000609    3.08  0.004525  ( 0.025149 -0.024059 -0.057566)
  9:     46.04   0.000622    3.14  0.004217  (-0.021027 -0.040865 -0.045881)
 10:     48.35   0.000274    1.39  0.001771  ( 0.023222  0.031971  0.014477)
 11:     54.86   0.000154    0.78  0.000874  (-0.028340  0.006591  0.005205)
 12:     63.02   0.000042    0.21  0.000206  ( 0.010329  0.003572 -0.009313)
 13:     66.39   0.000264    1.33  0.001239  (-0.034573 -0.002051 -0.006268)
 14:     68.78   0.001093    5.52  0.004960  ( 0.054462  0.034734 -0.028066)
 15:     71.05   0.000401    2.03  0.001763  (-0.039967  0.012567  0.002846)
 16:     76.17   0.000620    3.13  0.002540  ( 0.011672 -0.040911 -0.027013)
 17:     80.27   0.000278    1.40  0.001079  ( 0.021146 -0.016224  0.019203)
 18:     89.06   0.000725    3.66  0.002541  (-0.004027 -0.038637 -0.032119)
 19:     90.94   0.000064    0.33  0.000221  ( 0.008526  0.010295  0.006487)
 20:     99.36   0.000043    0.22  0.000134  ( 0.000502 -0.010289  0.005303)
 21:    113.32   0.000384    1.94  0.001058  (-0.004496  0.029638  0.012633)
 22:    124.28   0.000482    2.44  0.001211  ( 0.005046 -0.034429  0.000048)
 23:    131.57   0.000204    1.03  0.000485  ( 0.012591 -0.014964  0.010115)
 24:    150.97   0.001699    8.59  0.003513  (-0.018975  0.055643  0.007518)
 25:    155.69   0.000900    4.55  0.001804  (-0.010644  0.029278  0.028871)
 26:    157.50   0.001539    7.78  0.003048  (-0.033676 -0.043341 -0.005989)
 27:    160.17   0.002385   12.05  0.004647  ( 0.033074 -0.047560 -0.035929)
 28:    171.19   0.002490   12.58  0.004539  ( 0.059777  0.028589  0.012170)
 29:    181.21   0.004554   23.01  0.007843  (-0.054121  0.064504  0.027439)
 30:    182.08   0.001186    5.99  0.002033  (-0.035060 -0.020689 -0.019374)
 31:    189.01   0.002631   13.30  0.004345  (-0.036657 -0.009660  0.053923)
 32:    193.93   0.015598   78.83  0.025100  (-0.141441 -0.031903  0.063849)
 33:    204.58   0.002879   14.55  0.004392  (-0.014727  0.023252  0.060283)
 34:    213.81   0.005484   27.72  0.008004  ( 0.047110  0.020170 -0.073337)
 35:    216.92   0.004166   21.05  0.005993  ( 0.010445 -0.062948 -0.043833)
 36:    237.44   0.002928   14.80  0.003848  ( 0.040382  0.022298 -0.041474)
 37:    242.17   0.001997   10.09  0.002574  ( 0.023902 -0.038016 -0.023609)
 38:    261.00   0.003112   15.73  0.003721  ( 0.038488  0.004070  0.047146)
 39:    266.69   0.005121   25.88  0.005993  (-0.019266 -0.070599 -0.025242)
 40:    274.83   0.002030   10.26  0.002305  (-0.015861 -0.045304  0.001103)
 41:    275.98   0.016929   85.55  0.019142  (-0.013408  0.125297  0.057120)
 42:    277.13   0.006154   31.10  0.006930  (-0.053485 -0.055234 -0.031920)
 43:    283.53   0.013532   68.38  0.014893  ( 0.084188 -0.054544  0.069502)
 44:    289.12   0.005209   26.32  0.005622  ( 0.074848  0.004007 -0.002042)
 45:    292.09   0.004133   20.89  0.004416  (-0.056362  0.005098  0.034830)
 46:    307.57   0.008306   41.97  0.008427  ( 0.066268  0.022406  0.059444)
 47:    311.83   0.016033   81.03  0.016045  ( 0.018007  0.090813 -0.086453)
 48:    317.13   0.006085   30.75  0.005988  (-0.005745  0.025458 -0.072845)
 49:    341.94   0.002392   12.09  0.002183  (-0.002526 -0.012725 -0.044885)
 50:    355.47   0.004480   22.64  0.003933  ( 0.051833  0.033705 -0.010495)
 51:    391.94   0.004598   23.24  0.003661  ( 0.011941 -0.052519 -0.027576)
 52:    399.76   0.016804   84.92  0.013118  (-0.014010  0.113670  0.000646)
 53:    439.36   0.005054   25.54  0.003590  ( 0.001856 -0.052628 -0.028574)
 54:    446.84   0.006698   33.85  0.004678  ( 0.033813  0.058276 -0.011755)
 55:    461.68   0.002840   14.35  0.001920  (-0.019119 -0.039420  0.000618)
 56:    467.87   0.007719   39.01  0.005148  (-0.041907  0.036507  0.045382)
 57:    484.64   0.018030   91.12  0.011610  ( 0.002693 -0.021990 -0.105447)
 58:    496.12   0.010708   54.12  0.006736  ( 0.035026 -0.073821 -0.007703)
 59:    513.11   0.015761   79.65  0.009586  (-0.091811 -0.032889  0.008653)
 60:    523.90   0.005063   25.59  0.003016  ( 0.052528  0.002667  0.015795)
 61:    536.64   0.011555   58.39  0.006719  (-0.023323 -0.078083 -0.008862)
 62:    542.96   0.008720   44.07  0.005012  (-0.026712  0.049005 -0.043550)
 63:    555.79   0.013003   65.71  0.007301  (-0.020246 -0.080780  0.019113)
 64:    563.16   0.036697  185.45  0.020335  ( 0.132159  0.009604 -0.052697)
 65:    583.67   0.003501   17.69  0.001872  ( 0.035290  0.004032  0.024699)
 66:    600.39   0.006771   34.22  0.003519  (-0.036532 -0.028014 -0.037417)
 67:    605.77   0.000748    3.78  0.000385  (-0.007328  0.001868 -0.018112)
 68:    631.40   0.009096   45.97  0.004496  ( 0.034940  0.005240 -0.056986)
 69:    642.37   0.022192  112.15  0.010781  ( 0.066943  0.067417 -0.041886)
 70:    660.54   0.039612  200.18  0.018714  (-0.132522 -0.025792 -0.022070)
 71:    668.13   0.022694  114.69  0.010600  ( 0.051695 -0.083345  0.031325)
 72:    679.12   0.003131   15.82  0.001439  ( 0.037769  0.002783 -0.002073)
 73:    699.95   0.001353    6.84  0.000603  ( 0.005363  0.013856 -0.019551)
 74:    709.02   0.015882   80.26  0.006990  ( 0.001436  0.008534  0.083159)
 75:    728.28   0.006130   30.98  0.002627  (-0.035924  0.005835  0.036084)
 76:    745.78   0.070394  355.74  0.029456  ( 0.003894 -0.011621 -0.171188)
 77:    753.96   0.012025   60.77  0.004977  ( 0.036258 -0.012726 -0.059164)
 78:    781.00   0.018646   94.23  0.007450  (-0.010905  0.085390 -0.006316)
 79:    790.04   0.026844  135.66  0.010603  ( 0.090734 -0.036911  0.031752)
 80:    802.54   0.042705  215.81  0.016606  (-0.059854 -0.066384 -0.092824)
 81:    839.33   0.018821   95.11  0.006998  ( 0.043273 -0.058740 -0.040923)
 82:    879.61   0.065017  328.57  0.023066  ( 0.025808 -0.142845 -0.044674)
 83:    884.62   0.072323  365.49  0.025513  ( 0.151552 -0.025265  0.043666)
 84:    935.45   0.063986  323.36  0.021346  (-0.032318 -0.040985  0.136460)
 85:    956.39   0.036327  183.58  0.011853  (-0.032625  0.081010 -0.065009)
 86:    965.34   0.022072  111.54  0.007135  (-0.055330 -0.049074  0.040809)
 87:    989.03   0.024417  123.39  0.007704  (-0.068776 -0.037213 -0.039862)
 88:   1031.75   0.015040   76.01  0.004549  (-0.014324 -0.004080 -0.065781)
 89:   1052.40   0.004448   22.48  0.001319  ( 0.013708  0.023630 -0.023930)
 90:   1643.64   0.035221  177.99  0.006687  ( 0.017244 -0.079157  0.011125)
 91:   1643.83   0.031340  158.38  0.005950  ( 0.070026  0.013170  0.029538)
 92:   1647.26   0.016504   83.40  0.003127  ( 0.035526  0.012330 -0.041382)
 93:   1649.45   0.008873   44.84  0.001679  (-0.033925 -0.002178 -0.022870)
 94:   1662.39   0.024333  122.97  0.004568  (-0.004075  0.061036 -0.028734)
 95:   1666.58   0.012296   62.14  0.002302  ( 0.004613  0.039854 -0.026320)
 96:   1681.76   0.004319   21.83  0.000802  (-0.000691 -0.004982  0.027861)
 97:   1691.46   0.008737   44.15  0.001612  (-0.016222  0.036162 -0.006411)
 98:   1693.45   0.023142  116.95  0.004265  ( 0.022877 -0.059708  0.013274)
 99:   1698.56   0.009935   50.21  0.001825  (-0.034206 -0.007030  0.024613)
100:   1710.47   0.027239  137.65  0.004970  ( 0.041655  0.051018  0.025131)
101:   1720.34   0.008362   42.26  0.001517  ( 0.020345  0.027625 -0.018432)
102:   1726.65   0.015893   80.31  0.002872  ( 0.038578 -0.037080  0.003020)
103:   1742.16   0.010127   51.18  0.001814  ( 0.025451  0.032700  0.009850)
104:   1749.95   0.010656   53.85  0.001900  (-0.035983 -0.002128 -0.024515)
105:   3117.09   0.238390  1204.73  0.023866  (-0.147150 -0.040240 -0.024364)
106:   3145.27   0.167619  847.08  0.016631  (-0.000443  0.113361  0.061479)
107:   3238.42   0.169848  858.34  0.016367  (-0.109020  0.025954 -0.061709)
108:   3277.71   0.289293  1461.97  0.027543  (-0.021319 -0.153262 -0.059993)
109:   3295.51   0.104046  525.81  0.009852  ( 0.010377  0.038795 -0.090773)
110:   3362.85   0.164917  833.42  0.015304  (-0.046207 -0.112223 -0.023973)
111:   3391.30   0.139346  704.20  0.012822  (-0.068172 -0.079964  0.042200)
112:   3398.83   0.066196  334.53  0.006078  (-0.003357 -0.053643 -0.056471)
113:   3452.97   0.142683  721.06  0.012895  ( 0.000846 -0.094835 -0.062455)
114:   3513.44   0.086475  437.01  0.007681  (-0.066109  0.042870 -0.038373)
115:   3530.48   0.104014  525.64  0.009194  (-0.048556  0.078862  0.024842)
116:   3556.44   0.049495  250.13  0.004343  ( 0.035803 -0.037359 -0.040809)
117:   3570.22   0.098533  497.95  0.008613  (-0.004542  0.054632  0.074881)
118:   3587.61   0.033867  171.15  0.002946  ( 0.020323 -0.033863  0.037230)
119:   3605.10   0.132542  669.81  0.011473  (-0.098326 -0.023406  0.035456)
120:   3611.84   0.159955  808.35  0.013820  (-0.116387 -0.016466  0.001726)
121:   3614.35   0.058109  293.66  0.005017  (-0.001677  0.070662  0.004596)
122:   3634.94   0.041299  208.71  0.003546  ( 0.006591 -0.058932 -0.005397)
123:   3650.65   0.042242  213.47  0.003611  (-0.059510 -0.008331 -0.000139)
124:   3654.80   0.053839  272.08  0.004597  (-0.021429 -0.001461  0.064309)
125:   3671.62   0.139627  705.62  0.011867  ( 0.081782 -0.045649 -0.055635)
126:   3685.45   0.062111  313.88  0.005259  (-0.042385  0.048127 -0.033860)
127:   3698.95   0.076515  386.68  0.006455  ( 0.048666  0.054634 -0.033197)
128:   3756.32   0.042699  215.78  0.003547  ( 0.050178  0.017342  0.026995)
129:   3844.87   0.011508   58.16  0.000934  ( 0.017254  0.024340  0.006626)
130:   3845.43   0.011223   56.72  0.000911  ( 0.023867 -0.007563  0.016851)
131:   3849.11   0.011848   59.88  0.000961  ( 0.017004  0.016580 -0.019914)
132:   3850.42   0.012915   65.27  0.001047  ( 0.010497 -0.022790 -0.020424)
133:   3851.91   0.014100   71.25  0.001142  (-0.015662  0.002660  0.029832)
134:   3854.27   0.014861   75.10  0.001203  ( 0.013050 -0.032120 -0.001111)

--------------------------
THERMOCHEMISTRY AT 300.00K
--------------------------

Temperature         ...   300.00 K
Pressure            ...     1.00 atm
Total Mass          ...   270.23 AMU
Quasi RRHO          ...     True
Cut-Off Frequency   ...     1.00 cm^-1

Throughout the following assumptions are being made:
  (1) The electronic state is orbitally nondegenerate
  (2) There are no thermally accessible electronically excited states
  (3) Hindered rotations indicated by low frequency modes are not
      treated as such but are treated as vibrations and this may
      cause some error
  (4) All equations used are the standard statistical mechanics
      equations for an ideal gas
  (5) All vibrations are strictly harmonic

freq.      34.13  E(vib)   ...       0.55
freq.      40.46  E(vib)   ...       0.54
freq.      42.02  E(vib)   ...       0.54
freq.      46.04  E(vib)   ...       0.53
freq.      48.35  E(vib)   ...       0.53
freq.      54.86  E(vib)   ...       0.52
freq.      63.02  E(vib)   ...       0.51
freq.      66.39  E(vib)   ...       0.51
freq.      68.78  E(vib)   ...       0.50
freq.      71.05  E(vib)   ...       0.50
freq.      76.17  E(vib)   ...       0.49
freq.      80.27  E(vib)   ...       0.49
freq.      89.06  E(vib)   ...       0.48
freq.      90.94  E(vib)   ...       0.48
freq.      99.36  E(vib)   ...       0.47
freq.     113.32  E(vib)   ...       0.45
freq.     124.28  E(vib)   ...       0.44
freq.     131.57  E(vib)   ...       0.43
freq.     150.97  E(vib)   ...       0.41
freq.     155.69  E(vib)   ...       0.40
freq.     157.50  E(vib)   ...       0.40
freq.     160.17  E(vib)   ...       0.40
freq.     171.19  E(vib)   ...       0.38
freq.     181.21  E(vib)   ...       0.37
freq.     182.08  E(vib)   ...       0.37
freq.     189.01  E(vib)   ...       0.37
freq.     193.93  E(vib)   ...       0.36
freq.     204.58  E(vib)   ...       0.35
freq.     213.81  E(vib)   ...       0.34
freq.     216.92  E(vib)   ...       0.34
freq.     237.44  E(vib)   ...       0.32
freq.     242.17  E(vib)   ...       0.32
freq.     261.00  E(vib)   ...       0.30
freq.     266.69  E(vib)   ...       0.29
freq.     274.83  E(vib)   ...       0.29
freq.     275.98  E(vib)   ...       0.29
freq.     277.13  E(vib)   ...       0.29
freq.     283.53  E(vib)   ...       0.28
freq.     289.12  E(vib)   ...       0.28
freq.     292.09  E(vib)   ...       0.27
freq.     307.57  E(vib)   ...       0.26
freq.     311.83  E(vib)   ...       0.26
freq.     317.13  E(vib)   ...       0.25
freq.     341.94  E(vib)   ...       0.24
freq.     355.47  E(vib)   ...       0.23
freq.     391.94  E(vib)   ...       0.20
freq.     399.76  E(vib)   ...       0.20
freq.     439.36  E(vib)   ...       0.17
freq.     446.84  E(vib)   ...       0.17
freq.     461.68  E(vib)   ...       0.16
freq.     467.87  E(vib)   ...       0.16
freq.     484.64  E(vib)   ...       0.15
freq.     496.12  E(vib)   ...       0.14
freq.     513.11  E(vib)   ...       0.14
freq.     523.90  E(vib)   ...       0.13
freq.     536.64  E(vib)   ...       0.13
freq.     542.96  E(vib)   ...       0.12
freq.     555.79  E(vib)   ...       0.12
freq.     563.16  E(vib)   ...       0.12
freq.     583.67  E(vib)   ...       0.11
freq.     600.39  E(vib)   ...       0.10
freq.     605.77  E(vib)   ...       0.10
freq.     631.40  E(vib)   ...       0.09
freq.     642.37  E(vib)   ...       0.09
freq.     660.54  E(vib)   ...       0.08
freq.     668.13  E(vib)   ...       0.08
freq.     679.12  E(vib)   ...       0.08
freq.     699.95  E(vib)   ...       0.07
freq.     709.02  E(vib)   ...       0.07
freq.     728.28  E(vib)   ...       0.07
freq.     745.78  E(vib)   ...       0.06
freq.     753.96  E(vib)   ...       0.06
freq.     781.00  E(vib)   ...       0.05
freq.     790.04  E(vib)   ...       0.05
freq.     802.54  E(vib)   ...       0.05
freq.     839.33  E(vib)   ...       0.04
freq.     879.61  E(vib)   ...       0.04
freq.     884.62  E(vib)   ...       0.04
freq.     935.45  E(vib)   ...       0.03
freq.     956.39  E(vib)   ...       0.03
freq.     965.34  E(vib)   ...       0.03
freq.     989.03  E(vib)   ...       0.02
freq.    1031.75  E(vib)   ...       0.02
freq.    1052.40  E(vib)   ...       0.02
freq.    1643.64  E(vib)   ...       0.00
freq.    1643.83  E(vib)   ...       0.00
freq.    1647.26  E(vib)   ...       0.00
freq.    1649.45  E(vib)   ...       0.00
freq.    1662.39  E(vib)   ...       0.00
freq.    1666.58  E(vib)   ...       0.00
freq.    1681.76  E(vib)   ...       0.00
freq.    1691.46  E(vib)   ...       0.00
freq.    1693.45  E(vib)   ...       0.00
freq.    1698.56  E(vib)   ...       0.00
freq.    1710.47  E(vib)   ...       0.00
freq.    1720.34  E(vib)   ...       0.00
freq.    1726.65  E(vib)   ...       0.00
freq.    1742.16  E(vib)   ...       0.00
freq.    1749.95  E(vib)   ...       0.00
freq.    3117.09  E(vib)   ...       0.00
freq.    3145.27  E(vib)   ...       0.00
freq.    3238.42  E(vib)   ...       0.00
freq.    3277.71  E(vib)   ...       0.00
freq.    3295.51  E(vib)   ...       0.00
freq.    3362.85  E(vib)   ...       0.00
freq.    3391.30  E(vib)   ...       0.00
freq.    3398.83  E(vib)   ...       0.00
freq.    3452.97  E(vib)   ...       0.00
freq.    3513.44  E(vib)   ...       0.00
freq.    3530.48  E(vib)   ...       0.00
freq.    3556.44  E(vib)   ...       0.00
freq.    3570.22  E(vib)   ...       0.00
freq.    3587.61  E(vib)   ...       0.00
freq.    3605.10  E(vib)   ...       0.00
freq.    3611.84  E(vib)   ...       0.00
freq.    3614.35  E(vib)   ...       0.00
freq.    3634.94  E(vib)   ...       0.00
freq.    3650.65  E(vib)   ...       0.00
freq.    3654.80  E(vib)   ...       0.00
freq.    3671.62  E(vib)   ...       0.00
freq.    3685.45  E(vib)   ...       0.00
freq.    3698.95  E(vib)   ...       0.00
freq.    3756.32  E(vib)   ...       0.00
freq.    3844.87  E(vib)   ...       0.00
freq.    3845.43  E(vib)   ...       0.00
freq.    3849.11  E(vib)   ...       0.00
freq.    3850.42  E(vib)   ...       0.00
freq.    3851.91  E(vib)   ...       0.00
freq.    3854.27  E(vib)   ...       0.00

------------
INNER ENERGY
------------

The inner energy is: U= E(el) + E(ZPE) + E(vib) + E(rot) + E(trans)
    E(el)   - is the total energy from the electronic structure calculation
              = E(kin-el) + E(nuc-el) + E(el-el) + E(nuc-nuc)
    E(ZPE)  - the the zero temperature vibrational energy from the frequency calculation
    E(vib)  - the the finite temperature correction to E(ZPE) due to population
              of excited vibrational states
    E(rot)  - is the rotational thermal energy
    E(trans)- is the translational thermal energy

Rotational constants in cm-1:     0.010547     0.008147     0.005830

                             ****ORCA TERMINATED NORMALLY****
TOTAL RUN TIME: 0 days 0 hours 27 minutes 49 seconds 255 msec
