                         Program Version 6.0.0  -   RELEASE  -
|  1> ! WB97X-D3BJ def2-TZVP VeryTightSCF
|  2>
|  3> %pal
|  4>    nprocs 8
|  5> end
|  6> * xyz 0 1
|  7> C       -1.9441597463      1.3745593897     -0.1618041094
|  8> C       -0.5826006671      1.4296641421      0.5124106972
|  9> C        0.5498982653      1.4259859272     -0.5124007539
| 10> C        1.9114435655      1.4816387667      0.1617968598
| 11> H       -2.0925248164      2.2385369748     -0.8174571002
| 12> H       -2.7397405362      1.3779813683      0.5898345288
| 13> H       -2.0480707623      0.4652231865     -0.7623499058
| 14> H       -0.5233478777      2.3334937530      1.1299528362
| 15> H       -0.4792220956      0.5701723873      1.1849952910
| 16> H        0.4463224394      2.2852457215     -1.1852494156
| 17> H        0.4908537089      0.5219515464     -1.1296651256
| 18> H        2.0152200321      2.3913439698      0.7618095046
| 19> H        2.0599236525      0.6180691406      0.8179586296
| 20> H        2.7070322426      1.4779030656     -0.5898319366
| 21> *
| 22>
| 23>                          ****END OF INPUT****

CARTESIAN COORDINATES (ANGSTROEM)
---------------------------------
  C     -1.944160    1.374559   -0.161804
  C     -0.582601    1.429664    0.512411
  C      0.549898    1.425986   -0.512401
  C      1.911444    1.481639    0.161797
  H     -2.092525    2.238537   -0.817457
  H     -2.739741    1.377981    0.589835
  H     -2.048071    0.465223   -0.762350
  H     -0.523348    2.333494    1.129953
  H     -0.479222    0.570172    1.184995
  H      0.446322    2.285246   -1.185249
  H      0.490854    0.521952   -1.129665
  H      2.015220    2.391344    0.761810
  H      2.059924    0.618069    0.817959
  H      2.707032    1.477903   -0.589832

 Total Charge           Charge          ....    0
 Multiplicity           Mult            ....    1
 Number of Electrons    NEL             ....   34
 Basis Dimension        Dim             ....  184

ORBITAL ENERGIES
----------------

  NO   OCC          E(Eh)            E(eV)
   0   2.0000     -10.260806      -279.2107
   1   2.0000     -10.260625      -279.2058
   2   2.0000     -10.253897      -279.0227
   3   2.0000     -10.253897      -279.0227
   4   2.0000      -0.932108       -25.3639
   5   2.0000      -0.856912       -23.3178
   6   2.0000      -0.753719       -20.5097
   7   2.0000      -0.700005       -19.0481
   8   2.0000      -0.587865       -15.9966
   9   2.0000      -0.540076       -14.6962
  10   2.0000      -0.528888       -14.3918
  11   2.0000      -0.523040       -14.2327
  12   2.0000      -0.473986       -12.8978
  13   2.0000      -0.454771       -12.3749
  14   2.0000      -0.437098       -11.8940
  15   2.0000      -0.427271       -11.6266
  16   2.0000      -0.420027       -11.4295
  17   0.0000       0.112769         3.0686
  18   0.0000       0.134088         3.6487
  19   0.0000       0.156129         4.2485
  20   0.0000       0.158113         4.3025
  21   0.0000       0.186959         5.0874

MULLIKEN ATOMIC CHARGES
-----------------------
   0 C :   -0.326070
   1 C :   -0.156216
   2 C :   -0.156235
   3 C :   -0.326042
   4 H :    0.101876
   5 H :    0.109696
   6 H :    0.101868
   7 H :    0.084419
   8 H :    0.084429
   9 H :    0.084420
  10 H :    0.084426
  11 H :    0.101869
  12 H :    0.101870
  13 H :    0.109691
Sum of atomic charges:   -0.0000000

LOEWDIN ATOMIC CHARGES
----------------------
   0 C :   -0.310514
   1 C :   -0.294514
   2 C :   -0.294514
   3 C :   -0.310513
   4 H :    0.115196
   5 H :    0.115112
   6 H :    0.115195
   7 H :    0.129762
   8 H :    0.129763
   9 H :    0.129763
  10 H :    0.129762
  11 H :    0.115194
  12 H :    0.115196
  13 H :    0.115112

  Mayer bond orders larger than 0.100000
B(  0-C ,  1-C ) :   0.9872 B(  0-C ,  4-H ) :   0.9812 B(  0-C ,  5-H ) :   0.9850
B(  0-C ,  6-H ) :   0.9812 B(  1-C ,  2-C ) :   0.9908 B(  1-C ,  7-H ) :   0.9723
B(  1-C ,  8-H ) :   0.9723 B(  2-C ,  3-C ) :   0.9872 B(  2-C ,  9-H ) :   0.9723
B(  2-C , 10-H ) :   0.9723 B(  3-C , 11-H ) :   0.9812 B(  3-C , 12-H ) :   0.9812
B(  3-C , 13-H ) :   0.9850

Dispersion correction           -0.015303301
FINAL SINGLE POINT ENERGY      -158.610035553956

DIPOLE MOMENT
-------------

Method             : SCF
Type of density    : Electron Density
Multiplicity       :   1
Irrep              :   0
Energy             :  -158.5947322527184440 Eh
Relativity type    :
Basis              : AO
                                X                 Y                 Z
Electronic contribution:      0.000008465      -0.000247217       0.000007882
Nuclear contribution   :     -0.000005860       0.000233069      -0.000007311
                        -----------------------------------------
Total Dipole Moment    :      0.000002605      -0.000014148       0.000000571
                        -----------------------------------------
Magnitude (a.u.)       :      0.000014397
Magnitude (Debye)      :      0.000036594

Rotational constants in cm-1:             0.771074             0.123673             0.115826
Rotational constants in MHz :         23116.207410          3707.611696          3472.369902

                             ****ORCA TERMINATED NORMALLY****
TOTAL RUN TIME: 0 days 0 hours 1 minutes 3 seconds 374 msec
