                         Program Version 6.0.0  -   RELEASE  -
|  1> ! B3LYP D4 def2-TZVP VeryTightSCF
|  2>
|  3> %pal
|  4>    nprocs 8
|  5> end
|  6>
|  7> %maxcore 9000
|  8>
|  9> %geom
| 10>    MaxIter 600
| 11> end
| 12>
| 13> * xyz 0 1
| 14> O       -3.590911000      3.401148000      0.030431000
| 15> H       -3.400145000      2.457871000     -0.097306000
| 16> H       -4.003159000      3.691935000     -0.788505000
| 17> O       -2.924634000      0.582336000     -0.124907000
| 18> H       -1.979662000      0.486433000      0.038299000
| 19> H       -3.361074371   0.128239641   0.599604076
| 20> *
| 21>
| 22>                          ****END OF INPUT****

CARTESIAN COORDINATES (ANGSTROEM)
---------------------------------
  O     -3.590911    3.401148    0.030431
  H     -3.400145    2.457871   -0.097306
  H     -4.003159    3.691935   -0.788505
  O     -2.924634    0.582336   -0.124907
  H     -1.979662    0.486433    0.038299
  H     -3.361074    0.128240    0.599604

 Total Charge           Charge          ....    0
 Multiplicity           Mult            ....    1
 Number of Electrons    NEL             ....   20
 Basis Dimension        Dim             ....   86

ORBITAL ENERGIES
----------------

  NO   OCC          E(Eh)            E(eV)
   0   2.0000     -19.154435      -521.2187
   1   2.0000     -19.090812      -519.4874
   2   2.0000      -1.041207       -28.3327
   3   2.0000      -0.977613       -26.6022
   4   2.0000      -0.561213       -15.2714
   5   2.0000      -0.504660       -13.7325
   6   2.0000      -0.420778       -11.4500
   7   2.0000      -0.360915        -9.8210
   8   2.0000      -0.338455        -9.2098
   9   2.0000      -0.284334        -7.7371
  10   0.0000      -0.000854        -0.0233
  11   0.0000       0.060601         1.6490
  12   0.0000       0.078186         2.1275
  13   0.0000       0.187517         5.1026
  14   0.0000       0.323287         8.7971

MULLIKEN ATOMIC CHARGES
-----------------------
   0 O :   -0.667140
   1 H :    0.332875
   2 H :    0.306195
   3 O :   -0.640984
   4 H :    0.334952
   5 H :    0.334101
Sum of atomic charges:   -0.0000000

LOEWDIN ATOMIC CHARGES
----------------------
   0 O :   -0.335134
   1 H :    0.137249
   2 H :    0.148391
   3 O :   -0.275765
   4 H :    0.164000
   5 H :    0.161258

  Mayer bond orders larger than 0.100000
B(  0-O ,  1-H ) :   0.8704 B(  0-O ,  2-H ) :   0.9159 B(  3-O ,  4-H ) :   0.8949
B(  3-O ,  5-H ) :   0.8958

Dispersion correction           -0.001552628
FINAL SINGLE POINT ENERGY      -152.862466486827

DIPOLE MOMENT
-------------

Method             : SCF
Type of density    : Electron Density
Multiplicity       :   1
Irrep              :   0
Energy             :  -152.8609138586403162 Eh
Relativity type    :
Basis              : AO
                                X                 Y                 Z
Electronic contribution:      0.023520120      -0.061359256       0.020552668
Nuclear contribution   :      0.238928812      -1.000904809      -0.049072590
                        -----------------------------------------
Total Dipole Moment    :      0.262448932      -1.062264065      -0.028519923
                        -----------------------------------------
Magnitude (a.u.)       :      1.094576526
Magnitude (Debye)      :      2.782192425

Rotational constants in cm-1:             7.158702             0.215526             0.215473
Rotational constants in MHz :        214612.483812          6461.297402          6459.727072

                             ****ORCA TERMINATED NORMALLY****
TOTAL RUN TIME: 0 days 0 hours 8 minutes 47 seconds 850 msec
