                         Program Version 6.0.0  -   RELEASE  -
|  1> ! B3LYP D4 def2-TZVP VeryTightSCF TightSCF SP CHELPG
|  2>
|  3> %pal
|  4>   nprocs 8
|  5> end
|  6>
|  7> %maxcore 9000
|  8>
|  9> * xyz 0 1
| 10> O  -3.589760   3.398151   0.031348
| 11> H  -3.401909   2.462975  -0.098392
| 12> H  -3.985325   3.552443  -0.832595
| 13> *
| 14>
| 15>                          ****END OF INPUT****

CARTESIAN COORDINATES (ANGSTROEM)
---------------------------------
  O     -3.589760    3.398151    0.031348
  H     -3.401909    2.462975   -0.098392
  H     -3.985325    3.552443   -0.832595

 Total Charge           Charge          ....    0
 Multiplicity           Mult            ....    1
 Number of Electrons    NEL             ....   10
 Basis Dimension        Dim             ....   43

ORBITAL ENERGIES
----------------

  NO   OCC          E(Eh)            E(eV)
   0   2.0000     -19.127228      -520.4783
   1   2.0000      -1.017433       -27.6858
   2   2.0000      -0.515925       -14.0390
   3   2.0000      -0.403636       -10.9835
   4   2.0000      -0.314876        -8.5682
   5   0.0000       0.014624         0.3979
   6   0.0000       0.092092         2.5060
   7   0.0000       0.347268         9.4496
   8   0.0000       0.417672        11.3654
   9   0.0000       0.427156        11.6235

MULLIKEN ATOMIC CHARGES
-----------------------
   0 O :   -0.606245
   1 H :    0.303127
   2 H :    0.303118
Sum of atomic charges:   -0.0000000

LOEWDIN ATOMIC CHARGES
----------------------
   0 O :   -0.309700
   1 H :    0.154851
   2 H :    0.154849

  Mayer bond orders larger than 0.100000
B(  0-O ,  1-H ) :   0.9200 B(  0-O ,  2-H ) :   0.9200

Dispersion correction           -0.000314250
FINAL SINGLE POINT ENERGY       -76.424495556760

DIPOLE MOMENT
-------------

Method             : SCF
Type of density    : Electron Density
Multiplicity       :   1
Irrep              :   0
Energy             :   -76.4241813065050621 Eh
Relativity type    :
Basis              : AO
                                X                 Y                 Z
Electronic contribution:      0.033333848       0.125291646       0.159433560
Nuclear contribution   :     -0.172892957      -0.649977104      -0.827102615
                        -----------------------------------------
Total Dipole Moment    :     -0.139559110      -0.524685458      -0.667669054
                        -----------------------------------------
Magnitude (a.u.)       :      0.860554206
Magnitude (Debye)      :      2.187354959

Rotational constants in cm-1:            22.960236            16.186708             9.493733
Rotational constants in MHz :        688330.553810        485265.294457        284614.954434

                             ****ORCA TERMINATED NORMALLY****
TOTAL RUN TIME: 0 days 0 hours 0 minutes 18 seconds 910 msec
